Variables = X, Y, "AREA"
ZONE N=9, E=8, F=FEBLOCK
DT = (SINGLE, SINGLE, SINGLE)
0.00000000 0.50000000 1.00000000
0.00000000 0.50000000 1.00000000
0.00000000 0.50000000 1.00000000
0.00000000 0.00000000 0.00000000
0.50000000 0.50000000 0.50000000
1.00000000 1.00000000 1.00000000
0.250000 0.250000 0.250000
0.250000 0.250000 0.250000
0.250000 0.250000
0  1  3
1  4  3
1  2  4
2  5  4
3  4  6
4  7  6
4  5  7
5  8  7